Cellulose

435 atoms
10 atom types
450 bonds
16 bond types
825 angles
37 angle types
1320 dihedrals
66 dihedral types

-4.0000000000000000e+03 4.0000000000000000e+03 xlo xhi
-4.0000000000000000e+03 4.0000000000000000e+03 ylo yhi
-9.4000000000000000e+03 9.4000000000000000e+03 zlo zhi

Atoms # full

1 1 1 0.29 0.148 -0.342 0.449
2 1 2 0.09 1.093 -0.153 0.621
3 1 3 0.11 0.055 1.296 -1.279
4 1 2 0.09 1.004 1.484 -1.131
5 1 4 -0.4 -0.528 0.807 -0.055
6 1 5 0.14 -0.032 -1.499 -0.536
7 1 2 0.09 -0.972 -1.774 -0.567
8 1 6 -0.65 0.766 -2.559 -0.003
9 1 7 0.42 0.581 -2.603 0.955
10 1 5 0.14 0.439 -1.116 -1.918
11 1 2 0.09 1.42 -1.078 -1.91
12 1 6 -0.65 0.032 -2.127 -2.864
13 1 7 0.42 0.593 -1.956 -3.651
14 1 5 0.14 -0.082 0.244 -2.336
15 1 2 0.09 -1.041 0.143 -2.517
16 1 6 -0.65 0.535 0.701 -3.554
17 1 7 0.42 0.519 -0.03 -4.223
18 1 8 0.05 -0.662 2.599 -1.588
19 1 9 0.09 -1.576 2.411 -1.846
20 1 9 0.09 -0.676 3.155 -0.794
21 1 6 -0.65 -0.001 3.284 -2.637
22 1 7 0.42 -0.569 4.012 -2.958
23 1 1 0.29 -0.148 0.342 5.639
24 1 2 0.09 -1.093 0.153 5.811
25 1 3 0.11 -0.055 -1.296 3.911
26 1 2 0.09 -1.004 -1.484 4.059
27 1 4 -0.4 0.528 -0.807 5.135
28 1 5 0.14 0.032 1.499 4.654
29 1 2 0.09 0.972 1.774 4.623
30 1 6 -0.65 -0.766 2.559 5.187
31 1 7 0.42 -0.581 2.603 6.145
32 1 5 0.14 -0.439 1.116 3.272
33 1 2 0.09 -1.42 1.078 3.28
34 1 6 -0.65 -0.032 2.127 2.326
35 1 7 0.42 -0.593 1.956 1.539
36 1 5 0.09 0.082 -0.244 2.855
37 1 2 0.09 1.041 -0.143 2.673
38 1 10 -0.36 -0.535 -0.701 1.636
39 1 8 0.05 0.662 -2.599 3.602
40 1 9 0.09 1.576 -2.411 3.344
41 1 9 0.09 0.676 -3.155 4.396
42 1 6 -0.65 0.001 -3.284 2.553
43 1 7 0.42 0.569 -4.012 2.232
44 1 1 0.29 0.148 -0.342 10.829
45 1 2 0.09 1.093 -0.153 11.001
46 1 3 0.11 0.055 1.296 9.101
47 1 2 0.09 1.004 1.484 9.249
48 1 4 -0.4 -0.528 0.807 10.325
49 1 5 0.14 -0.032 -1.499 9.844
50 1 2 0.09 -0.972 -1.774 9.813
51 1 6 -0.65 0.766 -2.559 10.377
52 1 7 0.42 0.581 -2.603 11.335
53 1 5 0.14 0.439 -1.116 8.462
54 1 2 0.09 1.42 -1.078 8.47
55 1 6 -0.65 0.032 -2.127 7.516
56 1 7 0.42 0.593 -1.956 6.729
57 1 5 0.09 -0.082 0.244 8.045
58 1 2 0.09 -1.041 0.143 7.863
59 1 10 -0.36 0.535 0.701 6.826
60 1 8 0.05 -0.662 2.599 8.792
61 1 9 0.09 -1.576 2.411 8.534
62 1 9 0.09 -0.676 3.155 9.586
63 1 6 -0.65 -0.001 3.284 7.743
64 1 7 0.42 -0.569 4.012 7.422
65 1 1 0.34 -0.148 0.342 16.019
66 1 2 0.09 -1.093 0.153 16.191
67 1 6 -0.65 0.451 0.632 17.239
68 1 7 0.42 1.294 0.979 17.044
69 1 3 0.11 -0.055 -1.296 14.291
70 1 2 0.09 -1.004 -1.484 14.439
71 1 4 -0.4 0.528 -0.807 15.515
72 1 5 0.14 0.032 1.499 15.034
73 1 2 0.09 0.972 1.774 15.003
74 1 6 -0.65 -0.766 2.559 15.567
75 1 7 0.42 -0.581 2.603 16.525
76 1 5 0.14 -0.439 1.116 13.652
77 1 2 0.09 -1.42 1.078 13.66
78 1 6 -0.65 -0.032 2.127 12.706
79 1 7 0.42 -0.593 1.956 11.919
80 1 5 0.09 0.082 -0.244 13.234
81 1 2 0.09 1.041 -0.143 13.053
82 1 10 -0.36 -0.535 -0.701 12.016
83 1 8 0.05 0.662 -2.599 13.982
84 1 9 0.09 1.576 -2.411 13.724
85 1 9 0.09 0.676 -3.155 14.776
86 1 6 -0.65 0.001 -3.284 12.933
87 1 7 0.42 0.569 -4.012 12.612
88 2 1 0.29 3.726 3.707 3.159
89 2 2 0.09 4.691 3.761 3.322
90 2 3 0.11 3.601 5.357 1.441
91 2 2 0.09 4.558 5.565 1.422
92 2 4 -0.4 3.212 4.946 2.739
93 2 5 0.14 3.402 2.59 2.174
94 2 2 0.09 2.425 2.492 2.13
95 2 6 -0.65 3.956 1.353 2.616
96 2 7 0.42 3.771 1.298 3.579
97 2 5 0.14 3.905 2.958 0.794
98 2 2 0.09 4.879 3.058 0.823
99 2 6 -0.65 3.567 1.899 -0.084
100 2 7 0.42 3.719 2.227 -0.998
101 2 5 0.14 3.264 4.286 0.389
102 2 2 0.09 2.295 4.187 0.3
103 2 6 -0.65 3.838 4.775 -0.837
104 2 7 0.42 3.869 4.04 -1.501
105 2 8 0.05 2.762 6.641 1.168
106 2 9 0.09 1.873 6.391 0.879
107 2 9 0.09 2.681 7.153 1.989
108 2 6 -0.65 3.37 7.448 0.176
109 2 7 0.42 3.081 8.372 0.338
110 2 1 0.29 3.129 4.441 8.349
111 2 2 0.09 2.165 4.387 8.512
112 2 3 0.11 3.255 2.792 6.631
113 2 2 0.09 2.298 2.583 6.612
114 2 4 -0.4 3.644 3.202 7.929
115 2 5 0.14 3.453 5.559 7.364
116 2 2 0.09 4.431 5.657 7.32
117 2 6 -0.65 2.9 6.796 7.806
118 2 7 0.42 3.084 6.85 8.769
119 2 5 0.14 2.95 5.19 5.984
120 2 2 0.09 1.976 5.09 6.013
121 2 6 -0.65 3.289 6.25 5.106
122 2 7 0.42 3.136 5.921 4.192
123 2 5 0.09 3.592 3.862 5.579
124 2 2 0.09 4.561 3.961 5.49
125 2 10 -0.36 3.017 3.373 4.353
126 2 8 0.05 4.094 1.507 6.358
127 2 9 0.09 4.983 1.758 6.069
128 2 9 0.09 4.175 0.996 7.179
129 2 6 -0.65 3.485 0.701 5.366
130 2 7 0.42 3.774 -0.224 5.528
131 2 1 0.29 3.726 3.707 13.539
132 2 2 0.09 4.691 3.761 13.702
133 2 3 0.11 3.601 5.357 11.821
134 2 2 0.09 4.558 5.565 11.802
135 2 4 -0.4 3.212 4.946 13.119
136 2 5 0.14 3.402 2.59 12.554
137 2 2 0.09 2.425 2.492 12.51
138 2 6 -0.65 3.956 1.353 12.996
139 2 7 0.42 3.771 1.298 13.959
140 2 5 0.14 3.905 2.958 11.174
141 2 2 0.09 4.879 3.058 11.203
142 2 6 -0.65 3.567 1.899 10.296
143 2 7 0.42 3.719 2.227 9.382
144 2 5 0.09 3.264 4.286 10.769
145 2 2 0.09 2.295 4.187 10.68
146 2 10 -0.36 3.838 4.775 9.543
147 2 8 0.05 2.762 6.641 11.548
148 2 9 0.09 1.873 6.391 11.259
149 2 9 0.09 2.681 7.153 12.369
150 2 6 -0.65 3.37 7.448 10.556
151 2 7 0.42 3.081 8.372 10.718
152 2 1 0.34 3.129 4.441 18.729
153 2 2 0.09 2.165 4.387 18.892
154 2 6 -0.65 3.761 4.656 19.948
155 2 7 0.42 4.65 4.86 19.753
156 2 3 0.11 3.255 2.792 17.011
157 2 2 0.09 2.298 2.583 16.992
158 2 4 -0.4 3.644 3.202 18.309
159 2 5 0.14 3.453 5.559 17.744
160 2 2 0.09 4.431 5.657 17.7
161 2 6 -0.65 2.9 6.796 18.186
162 2 7 0.42 3.084 6.85 19.149
163 2 5 0.14 2.95 5.19 16.364
164 2 2 0.09 1.976 5.09 16.393
165 2 6 -0.65 3.289 6.25 15.486
166 2 7 0.42 3.136 5.921 14.572
167 2 5 0.09 3.592 3.862 15.959
168 2 2 0.09 4.561 3.961 15.87
169 2 10 -0.36 3.017 3.373 14.733
170 2 8 0.05 4.094 1.507 16.738
171 2 9 0.09 4.983 1.758 16.449
172 2 9 0.09 4.175 0.996 17.559
173 2 6 -0.65 3.485 0.701 15.746
174 2 7 0.42 3.774 -0.224 15.908
175 3 1 0.29 7.932 -0.342 0.449
176 3 2 0.09 8.877 -0.153 0.621
177 3 3 0.11 7.839 1.296 -1.279
178 3 2 0.09 8.788 1.484 -1.131
179 3 4 -0.4 7.256 0.807 -0.055
180 3 5 0.14 7.752 -1.499 -0.536
181 3 2 0.09 6.812 -1.774 -0.567
182 3 6 -0.65 8.55 -2.559 -0.003
183 3 7 0.42 8.365 -2.603 0.955
184 3 5 0.14 8.223 -1.116 -1.918
185 3 2 0.09 9.204 -1.078 -1.91
186 3 6 -0.65 7.816 -2.127 -2.864
187 3 7 0.42 8.377 -1.956 -3.651
188 3 5 0.14 7.702 0.244 -2.336
189 3 2 0.09 6.743 0.143 -2.517
190 3 6 -0.65 8.319 0.701 -3.554
191 3 7 0.42 8.303 -0.03 -4.223
192 3 8 0.05 7.122 2.599 -1.588
193 3 9 0.09 6.208 2.411 -1.846
194 3 9 0.09 7.108 3.155 -0.794
195 3 6 -0.65 7.783 3.284 -2.637
196 3 7 0.42 7.215 4.012 -2.958
197 3 1 0.29 7.636 0.342 5.639
198 3 2 0.09 6.691 0.153 5.811
199 3 3 0.11 7.729 -1.296 3.911
200 3 2 0.09 6.78 -1.484 4.059
201 3 4 -0.4 8.312 -0.807 5.135
202 3 5 0.14 7.816 1.499 4.654
203 3 2 0.09 8.756 1.774 4.623
204 3 6 -0.65 7.018 2.559 5.187
205 3 7 0.42 7.203 2.603 6.145
206 3 5 0.14 7.345 1.116 3.272
207 3 2 0.09 6.364 1.078 3.28
208 3 6 -0.65 7.752 2.127 2.326
209 3 7 0.42 7.191 1.956 1.539
210 3 5 0.09 7.866 -0.244 2.855
211 3 2 0.09 8.825 -0.143 2.673
212 3 10 -0.36 7.249 -0.701 1.636
213 3 8 0.05 8.446 -2.599 3.602
214 3 9 0.09 9.36 -2.411 3.344
215 3 9 0.09 8.46 -3.155 4.396
216 3 6 -0.65 7.785 -3.284 2.553
217 3 7 0.42 8.353 -4.012 2.232
218 3 1 0.29 7.932 -0.342 10.829
219 3 2 0.09 8.877 -0.153 11.001
220 3 3 0.11 7.839 1.296 9.101
221 3 2 0.09 8.788 1.484 9.249
222 3 4 -0.4 7.256 0.807 10.325
223 3 5 0.14 7.752 -1.499 9.844
224 3 2 0.09 6.812 -1.774 9.813
225 3 6 -0.65 8.55 -2.559 10.377
226 3 7 0.42 8.365 -2.603 11.335
227 3 5 0.14 8.223 -1.116 8.462
228 3 2 0.09 9.204 -1.078 8.47
229 3 6 -0.65 7.816 -2.127 7.516
230 3 7 0.42 8.377 -1.956 6.729
231 3 5 0.09 7.702 0.244 8.045
232 3 2 0.09 6.743 0.143 7.863
233 3 10 -0.36 8.319 0.701 6.826
234 3 8 0.05 7.122 2.599 8.792
235 3 9 0.09 6.208 2.411 8.534
236 3 9 0.09 7.108 3.155 9.586
237 3 6 -0.65 7.783 3.284 7.743
238 3 7 0.42 7.215 4.012 7.422
239 3 1 0.34 7.636 0.342 16.019
240 3 2 0.09 6.691 0.153 16.191
241 3 6 -0.65 8.235 0.632 17.239
242 3 7 0.42 9.078 0.979 17.044
243 3 3 0.11 7.729 -1.296 14.291
244 3 2 0.09 6.78 -1.484 14.439
245 3 4 -0.4 8.312 -0.807 15.515
246 3 5 0.14 7.816 1.499 15.034
247 3 2 0.09 8.756 1.774 15.003
248 3 6 -0.65 7.018 2.559 15.567
249 3 7 0.42 7.203 2.603 16.525
250 3 5 0.14 7.345 1.116 13.652
251 3 2 0.09 6.364 1.078 13.66
252 3 6 -0.65 7.752 2.127 12.706
253 3 7 0.42 7.191 1.956 11.919
254 3 5 0.09 7.866 -0.244 13.234
255 3 2 0.09 8.825 -0.143 13.053
256 3 10 -0.36 7.249 -0.701 12.016
257 3 8 0.05 8.446 -2.599 13.982
258 3 9 0.09 9.36 -2.411 13.724
259 3 9 0.09 8.46 -3.155 14.776
260 3 6 -0.65 7.785 -3.284 12.933
261 3 7 0.42 8.353 -4.012 12.612
262 4 1 0.29 -0.78 7.806 0.449
263 4 2 0.09 0.165 7.995 0.621
264 4 3 0.11 -0.874 9.444 -1.279
265 4 2 0.09 0.076 9.632 -1.131
266 4 4 -0.4 -1.456 8.955 -0.055
267 4 5 0.14 -0.96 6.649 -0.536
268 4 2 0.09 -1.9 6.374 -0.567
269 4 6 -0.65 -0.162 5.59 -0.003
270 4 7 0.42 -0.347 5.546 0.955
271 4 5 0.14 -0.49 7.032 -1.918
272 4 2 0.09 0.492 7.07 -1.91
273 4 6 -0.65 -0.896 6.022 -2.864
274 4 7 0.42 -0.336 6.193 -3.651
275 4 5 0.14 -1.011 8.393 -2.336
276 4 2 0.09 -1.969 8.292 -2.517
277 4 6 -0.65 -0.393 8.849 -3.554
278 4 7 0.42 -0.409 8.118 -4.223
279 4 8 0.05 -1.59 10.748 -1.588
280 4 9 0.09 -2.505 10.559 -1.846
281 4 9 0.09 -1.605 11.303 -0.794
282 4 6 -0.65 -0.929 11.432 -2.637
283 4 7 0.42 -1.498 12.16 -2.958
284 4 1 0.29 -1.076 8.491 5.639
285 4 2 0.09 -2.022 8.301 5.811
286 4 3 0.11 -0.983 6.853 3.911
287 4 2 0.09 -1.932 6.664 4.059
288 4 4 -0.4 -0.401 7.342 5.135
289 4 5 0.14 -0.897 9.648 4.654
290 4 2 0.09 0.043 9.922 4.623
291 4 6 -0.65 -1.695 10.707 5.187
292 4 7 0.42 -1.51 10.751 6.145
293 4 5 0.14 -1.367 9.265 3.272
294 4 2 0.09 -2.349 9.226 3.28
295 4 6 -0.65 -0.961 10.275 2.326
296 4 7 0.42 -1.521 10.104 1.539
297 4 5 0.09 -0.846 7.904 2.855
298 4 2 0.09 0.112 8.005 2.673
299 4 10 -0.36 -1.463 7.448 1.636
300 4 8 0.05 -0.266 5.549 3.602
301 4 9 0.09 0.648 5.737 3.344
302 4 9 0.09 -0.252 4.993 4.396
303 4 6 -0.65 -0.928 4.865 2.553
304 4 7 0.42 -0.359 4.136 2.232
305 4 1 0.29 -0.78 7.806 10.829
306 4 2 0.09 0.165 7.995 11.001
307 4 3 0.11 -0.874 9.444 9.101
308 4 2 0.09 0.076 9.632 9.249
309 4 4 -0.4 -1.456 8.955 10.325
310 4 5 0.14 -0.96 6.649 9.844
311 4 2 0.09 -1.9 6.374 9.813
312 4 6 -0.65 -0.162 5.59 10.377
313 4 7 0.42 -0.347 5.546 11.335
314 4 5 0.14 -0.49 7.032 8.462
315 4 2 0.09 0.492 7.07 8.47
316 4 6 -0.65 -0.896 6.022 7.516
317 4 7 0.42 -0.336 6.193 6.729
318 4 5 0.09 -1.011 8.393 8.045
319 4 2 0.09 -1.969 8.292 7.863
320 4 10 -0.36 -0.393 8.849 6.826
321 4 8 0.05 -1.59 10.748 8.792
322 4 9 0.09 -2.505 10.559 8.534
323 4 9 0.09 -1.605 11.303 9.586
324 4 6 -0.65 -0.929 11.432 7.743
325 4 7 0.42 -1.498 12.16 7.422
326 4 1 0.34 -1.076 8.491 16.019
327 4 2 0.09 -2.022 8.301 16.191
328 4 6 -0.65 -0.478 8.782 17.239
329 4 7 0.42 0.366 9.128 17.045
330 4 3 0.11 -0.983 6.853 14.291
331 4 2 0.09 -1.932 6.664 14.439
332 4 4 -0.4 -0.401 7.342 15.515
333 4 5 0.14 -0.897 9.648 15.034
334 4 2 0.09 0.043 9.922 15.003
335 4 6 -0.65 -1.695 10.707 15.567
336 4 7 0.42 -1.51 10.751 16.525
337 4 5 0.14 -1.367 9.265 13.652
338 4 2 0.09 -2.349 9.226 13.66
339 4 6 -0.65 -0.961 10.275 12.706
340 4 7 0.42 -1.521 10.104 11.919
341 4 5 0.09 -0.846 7.904 13.234
342 4 2 0.09 0.112 8.005 13.053
343 4 10 -0.36 -1.463 7.448 12.016
344 4 8 0.05 -0.266 5.549 13.982
345 4 9 0.09 0.648 5.737 13.724
346 4 9 0.09 -0.252 4.993 14.776
347 4 6 -0.65 -0.928 4.865 12.933
348 4 7 0.42 -0.359 4.136 12.612
349 5 1 0.29 7.004 7.806 0.449
350 5 2 0.09 7.949 7.995 0.621
351 5 3 0.11 6.91 9.444 -1.279
352 5 2 0.09 7.86 9.632 -1.131
353 5 4 -0.4 6.328 8.955 -0.055
354 5 5 0.14 6.824 6.649 -0.536
355 5 2 0.09 5.884 6.374 -0.567
356 5 6 -0.65 7.622 5.59 -0.003
357 5 7 0.42 7.437 5.546 0.955
358 5 5 0.14 7.294 7.032 -1.918
359 5 2 0.09 8.276 7.07 -1.91
360 5 6 -0.65 6.888 6.022 -2.864
361 5 7 0.42 7.448 6.193 -3.651
362 5 5 0.14 6.773 8.393 -2.336
363 5 2 0.09 5.815 8.292 -2.517
364 5 6 -0.65 7.391 8.849 -3.554
365 5 7 0.42 7.375 8.118 -4.223
366 5 8 0.05 6.194 10.748 -1.588
367 5 9 0.09 5.279 10.559 -1.846
368 5 9 0.09 6.179 11.303 -0.794
369 5 6 -0.65 6.855 11.432 -2.637
370 5 7 0.42 6.286 12.16 -2.958
371 5 1 0.29 6.708 8.491 5.639
372 5 2 0.09 5.762 8.301 5.811
373 5 3 0.11 6.801 6.853 3.911
374 5 2 0.09 5.852 6.664 4.059
375 5 4 -0.4 7.383 7.342 5.135
376 5 5 0.14 6.887 9.648 4.654
377 5 2 0.09 7.827 9.922 4.623
378 5 6 -0.65 6.089 10.707 5.187
379 5 7 0.42 6.274 10.751 6.145
380 5 5 0.14 6.417 9.265 3.272
381 5 2 0.09 5.435 9.226 3.28
382 5 6 -0.65 6.823 10.275 2.326
383 5 7 0.42 6.263 10.104 1.539
384 5 5 0.09 6.938 7.904 2.855
385 5 2 0.09 7.896 8.005 2.673
386 5 10 -0.36 6.321 7.448 1.636
387 5 8 0.05 7.518 5.549 3.602
388 5 9 0.09 8.432 5.737 3.344
389 5 9 0.09 7.532 4.993 4.396
390 5 6 -0.65 6.856 4.865 2.553
391 5 7 0.42 7.425 4.136 2.232
392 5 1 0.29 7.004 7.806 10.829
393 5 2 0.09 7.949 7.995 11.001
394 5 3 0.11 6.91 9.444 9.101
395 5 2 0.09 7.86 9.632 9.249
396 5 4 -0.4 6.328 8.955 10.325
397 5 5 0.14 6.824 6.649 9.844
398 5 2 0.09 5.884 6.374 9.813
399 5 6 -0.65 7.622 5.59 10.377
400 5 7 0.42 7.437 5.546 11.335
401 5 5 0.14 7.294 7.032 8.462
402 5 2 0.09 8.276 7.07 8.47
403 5 6 -0.65 6.888 6.022 7.516
404 5 7 0.42 7.448 6.193 6.729
405 5 5 0.09 6.773 8.393 8.045
406 5 2 0.09 5.815 8.292 7.863
407 5 10 -0.36 7.391 8.849 6.826
408 5 8 0.05 6.194 10.748 8.792
409 5 9 0.09 5.279 10.559 8.534
410 5 9 0.09 6.179 11.303 9.586
411 5 6 -0.65 6.855 11.432 7.743
412 5 7 0.42 6.286 12.16 7.422
413 5 1 0.34 6.708 8.491 16.019
414 5 2 0.09 5.762 8.301 16.191
415 5 6 -0.65 7.306 8.782 17.239
416 5 7 0.42 8.15 9.128 17.045
417 5 3 0.11 6.801 6.853 14.291
418 5 2 0.09 5.852 6.664 14.439
419 5 4 -0.4 7.383 7.342 15.515
420 5 5 0.14 6.887 9.648 15.034
421 5 2 0.09 7.827 9.922 15.003
422 5 6 -0.65 6.089 10.707 15.567
423 5 7 0.42 6.274 10.751 16.525
424 5 5 0.14 6.417 9.265 13.652
425 5 2 0.09 5.435 9.226 13.66
426 5 6 -0.65 6.823 10.275 12.706
427 5 7 0.42 6.263 10.104 11.919
428 5 5 0.09 6.938 7.904 13.234
429 5 2 0.09 7.896 8.005 13.053
430 5 10 -0.36 6.321 7.448 12.016
431 5 8 0.05 7.518 5.549 13.982
432 5 9 0.09 8.432 5.737 13.724
433 5 9 0.09 7.532 4.993 14.776
434 5 6 -0.65 6.856 4.865 12.933
435 5 7 0.42 7.425 4.136 12.612

Bonds

1 1 1 2
2 2 1 5
3 3 1 6
4 4 3 4
5 5 3 18
6 6 3 5
7 7 6 7
8 8 6 8
9 9 6 10
10 10 8 9
11 7 10 11
12 8 10 12
13 9 10 14
14 10 12 13
15 7 14 15
16 8 14 16
17 11 14 3
18 10 16 17
19 12 18 19
20 12 18 20
21 13 18 21
22 10 21 22
23 1 23 24
24 2 23 27
25 3 23 28
26 4 25 26
27 5 25 39
28 6 25 27
29 7 28 29
30 8 28 30
31 9 28 32
32 10 30 31
33 7 32 33
34 8 32 34
35 9 32 36
36 10 34 35
37 7 36 37
38 14 36 38
39 11 36 25
40 15 38 1
41 12 39 40
42 12 39 41
43 13 39 42
44 10 42 43
45 1 44 45
46 2 44 48
47 3 44 49
48 4 46 47
49 5 46 60
50 6 46 48
51 7 49 50
52 8 49 51
53 9 49 53
54 10 51 52
55 7 53 54
56 8 53 55
57 9 53 57
58 10 55 56
59 7 57 58
60 14 57 59
61 11 57 46
62 15 59 23
63 12 60 61
64 12 60 62
65 13 60 63
66 10 63 64
67 16 65 67
68 1 65 66
69 2 65 71
70 3 65 72
71 10 67 68
72 4 69 70
73 5 69 83
74 6 69 71
75 7 72 73
76 8 72 74
77 9 72 76
78 10 74 75
79 7 76 77
80 8 76 78
81 9 76 80
82 10 78 79
83 7 80 81
84 14 80 82
85 11 80 69
86 15 82 44
87 12 83 84
88 12 83 85
89 13 83 86
90 10 86 87
91 1 88 89
92 2 88 92
93 3 88 93
94 4 90 91
95 5 90 105
96 6 90 92
97 7 93 94
98 8 93 95
99 9 93 97
100 10 95 96
101 7 97 98
102 8 97 99
103 9 97 101
104 10 99 100
105 7 101 102
106 8 101 103
107 11 101 90
108 10 103 104
109 12 105 106
110 12 105 107
111 13 105 108
112 10 108 109
113 1 110 111
114 2 110 114
115 3 110 115
116 4 112 113
117 5 112 126
118 6 112 114
119 7 115 116
120 8 115 117
121 9 115 119
122 10 117 118
123 7 119 120
124 8 119 121
125 9 119 123
126 10 121 122
127 7 123 124
128 14 123 125
129 11 123 112
130 15 125 88
131 12 126 127
132 12 126 128
133 13 126 129
134 10 129 130
135 1 131 132
136 2 131 135
137 3 131 136
138 4 133 134
139 5 133 147
140 6 133 135
141 7 136 137
142 8 136 138
143 9 136 140
144 10 138 139
145 7 140 141
146 8 140 142
147 9 140 144
148 10 142 143
149 7 144 145
150 14 144 146
151 11 144 133
152 15 146 110
153 12 147 148
154 12 147 149
155 13 147 150
156 10 150 151
157 16 152 154
158 1 152 153
159 2 152 158
160 3 152 159
161 10 154 155
162 4 156 157
163 5 156 170
164 6 156 158
165 7 159 160
166 8 159 161
167 9 159 163
168 10 161 162
169 7 163 164
170 8 163 165
171 9 163 167
172 10 165 166
173 7 167 168
174 14 167 169
175 11 167 156
176 15 169 131
177 12 170 171
178 12 170 172
179 13 170 173
180 10 173 174
181 1 175 176
182 2 175 179
183 3 175 180
184 4 177 178
185 5 177 192
186 6 177 179
187 7 180 181
188 8 180 182
189 9 180 184
190 10 182 183
191 7 184 185
192 8 184 186
193 9 184 188
194 10 186 187
195 7 188 189
196 8 188 190
197 11 188 177
198 10 190 191
199 12 192 193
200 12 192 194
201 13 192 195
202 10 195 196
203 1 197 198
204 2 197 201
205 3 197 202
206 4 199 200
207 5 199 213
208 6 199 201
209 7 202 203
210 8 202 204
211 9 202 206
212 10 204 205
213 7 206 207
214 8 206 208
215 9 206 210
216 10 208 209
217 7 210 211
218 14 210 212
219 11 210 199
220 15 212 175
221 12 213 214
222 12 213 215
223 13 213 216
224 10 216 217
225 1 218 219
226 2 218 222
227 3 218 223
228 4 220 221
229 5 220 234
230 6 220 222
231 7 223 224
232 8 223 225
233 9 223 227
234 10 225 226
235 7 227 228
236 8 227 229
237 9 227 231
238 10 229 230
239 7 231 232
240 14 231 233
241 11 231 220
242 15 233 197
243 12 234 235
244 12 234 236
245 13 234 237
246 10 237 238
247 16 239 241
248 1 239 240
249 2 239 245
250 3 239 246
251 10 241 242
252 4 243 244
253 5 243 257
254 6 243 245
255 7 246 247
256 8 246 248
257 9 246 250
258 10 248 249
259 7 250 251
260 8 250 252
261 9 250 254
262 10 252 253
263 7 254 255
264 14 254 256
265 11 254 243
266 15 256 218
267 12 257 258
268 12 257 259
269 13 257 260
270 10 260 261
271 1 262 263
272 2 262 266
273 3 262 267
274 4 264 265
275 5 264 279
276 6 264 266
277 7 267 268
278 8 267 269
279 9 267 271
280 10 269 270
281 7 271 272
282 8 271 273
283 9 271 275
284 10 273 274
285 7 275 276
286 8 275 277
287 11 275 264
288 10 277 278
289 12 279 280
290 12 279 281
291 13 279 282
292 10 282 283
293 1 284 285
294 2 284 288
295 3 284 289
296 4 286 287
297 5 286 300
298 6 286 288
299 7 289 290
300 8 289 291
301 9 289 293
302 10 291 292
303 7 293 294
304 8 293 295
305 9 293 297
306 10 295 296
307 7 297 298
308 14 297 299
309 11 297 286
310 15 299 262
311 12 300 301
312 12 300 302
313 13 300 303
314 10 303 304
315 1 305 306
316 2 305 309
317 3 305 310
318 4 307 308
319 5 307 321
320 6 307 309
321 7 310 311
322 8 310 312
323 9 310 314
324 10 312 313
325 7 314 315
326 8 314 316
327 9 314 318
328 10 316 317
329 7 318 319
330 14 318 320
331 11 318 307
332 15 320 284
333 12 321 322
334 12 321 323
335 13 321 324
336 10 324 325
337 16 326 328
338 1 326 327
339 2 326 332
340 3 326 333
341 10 328 329
342 4 330 331
343 5 330 344
344 6 330 332
345 7 333 334
346 8 333 335
347 9 333 337
348 10 335 336
349 7 337 338
350 8 337 339
351 9 337 341
352 10 339 340
353 7 341 342
354 14 341 343
355 11 341 330
356 15 343 305
357 12 344 345
358 12 344 346
359 13 344 347
360 10 347 348
361 1 349 350
362 2 349 353
363 3 349 354
364 4 351 352
365 5 351 366
366 6 351 353
367 7 354 355
368 8 354 356
369 9 354 358
370 10 356 357
371 7 358 359
372 8 358 360
373 9 358 362
374 10 360 361
375 7 362 363
376 8 362 364
377 11 362 351
378 10 364 365
379 12 366 367
380 12 366 368
381 13 366 369
382 10 369 370
383 1 371 372
384 2 371 375
385 3 371 376
386 4 373 374
387 5 373 387
388 6 373 375
389 7 376 377
390 8 376 378
391 9 376 380
392 10 378 379
393 7 380 381
394 8 380 382
395 9 380 384
396 10 382 383
397 7 384 385
398 14 384 386
399 11 384 373
400 15 386 349
401 12 387 388
402 12 387 389
403 13 387 390
404 10 390 391
405 1 392 393
406 2 392 396
407 3 392 397
408 4 394 395
409 5 394 408
410 6 394 396
411 7 397 398
412 8 397 399
413 9 397 401
414 10 399 400
415 7 401 402
416 8 401 403
417 9 401 405
418 10 403 404
419 7 405 406
420 14 405 407
421 11 405 394
422 15 407 371
423 12 408 409
424 12 408 410
425 13 408 411
426 10 411 412
427 16 413 415
428 1 413 414
429 2 413 419
430 3 413 420
431 10 415 416
432 4 417 418
433 5 417 431
434 6 417 419
435 7 420 421
436 8 420 422
437 9 420 424
438 10 422 423
439 7 424 425
440 8 424 426
441 9 424 428
442 10 426 427
443 7 428 429
444 14 428 430
445 11 428 417
446 15 430 392
447 12 431 432
448 12 431 433
449 13 431 434
450 10 434 435

Angles

1 1 1 38 36
2 2 1 6 10
3 3 1 6 8
4 4 1 6 7
5 5 1 5 3
6 6 2 1 6
7 7 2 1 5
8 8 3 18 21
9 9 3 18 20
10 9 3 18 19
11 10 4 3 5
12 11 4 3 18
13 12 5 1 6
14 13 6 10 14
15 14 6 10 12
16 15 6 10 11
17 16 6 8 9
18 15 7 6 10
19 17 7 6 8
20 14 8 6 10
21 18 10 14 3
22 14 10 14 16
23 15 10 14 15
24 16 10 12 13
25 15 11 10 14
26 17 11 10 12
27 14 12 10 14
28 16 14 16 17
29 19 14 3 5
30 20 14 3 18
31 21 14 3 4
32 22 15 14 3
33 17 15 14 16
34 23 16 14 3
35 24 18 21 22
36 25 18 3 5
37 26 19 18 21
38 27 19 18 20
39 26 20 18 21
40 1 23 59 57
41 2 23 28 32
42 3 23 28 30
43 4 23 28 29
44 5 23 27 25
45 6 24 23 28
46 7 24 23 27
47 8 25 39 42
48 9 25 39 41
49 9 25 39 40
50 10 26 25 27
51 11 26 25 39
52 12 27 23 28
53 13 28 32 36
54 14 28 32 34
55 15 28 32 33
56 16 28 30 31
57 15 29 28 32
58 17 29 28 30
59 14 30 28 32
60 18 32 36 25
61 28 32 36 38
62 15 32 36 37
63 16 32 34 35
64 15 33 32 36
65 17 33 32 34
66 14 34 32 36
67 19 36 25 27
68 20 36 25 39
69 21 36 25 26
70 22 37 36 25
71 29 37 36 38
72 30 38 36 25
73 31 38 1 6
74 32 38 1 5
75 33 38 1 2
76 24 39 42 43
77 25 39 25 27
78 26 40 39 42
79 27 40 39 41
80 26 41 39 42
81 1 44 82 80
82 2 44 49 53
83 3 44 49 51
84 4 44 49 50
85 5 44 48 46
86 6 45 44 49
87 7 45 44 48
88 8 46 60 63
89 9 46 60 62
90 9 46 60 61
91 10 47 46 48
92 11 47 46 60
93 12 48 44 49
94 13 49 53 57
95 14 49 53 55
96 15 49 53 54
97 16 49 51 52
98 15 50 49 53
99 17 50 49 51
100 14 51 49 53
101 18 53 57 46
102 28 53 57 59
103 15 53 57 58
104 16 53 55 56
105 15 54 53 57
106 17 54 53 55
107 14 55 53 57
108 19 57 46 48
109 20 57 46 60
110 21 57 46 47
111 22 58 57 46
112 29 58 57 59
113 30 59 57 46
114 31 59 23 28
115 32 59 23 27
116 33 59 23 24
117 24 60 63 64
118 25 60 46 48
119 26 61 60 63
120 27 61 60 62
121 26 62 60 63
122 2 65 72 76
123 3 65 72 74
124 4 65 72 73
125 5 65 71 69
126 34 65 67 68
127 6 66 65 72
128 7 66 65 71
129 35 67 65 72
130 36 67 65 71
131 37 67 65 66
132 8 69 83 86
133 9 69 83 85
134 9 69 83 84
135 10 70 69 71
136 11 70 69 83
137 12 71 65 72
138 13 72 76 80
139 14 72 76 78
140 15 72 76 77
141 16 72 74 75
142 15 73 72 76
143 17 73 72 74
144 14 74 72 76
145 18 76 80 69
146 28 76 80 82
147 15 76 80 81
148 16 76 78 79
149 15 77 76 80
150 17 77 76 78
151 14 78 76 80
152 19 80 69 71
153 20 80 69 83
154 21 80 69 70
155 22 81 80 69
156 29 81 80 82
157 30 82 80 69
158 31 82 44 49
159 32 82 44 48
160 33 82 44 45
161 24 83 86 87
162 25 83 69 71
163 26 84 83 86
164 27 84 83 85
165 26 85 83 86
166 1 88 125 123
167 2 88 93 97
168 3 88 93 95
169 4 88 93 94
170 5 88 92 90
171 6 89 88 93
172 7 89 88 92
173 8 90 105 108
174 9 90 105 107
175 9 90 105 106
176 10 91 90 92
177 11 91 90 105
178 12 92 88 93
179 13 93 97 101
180 14 93 97 99
181 15 93 97 98
182 16 93 95 96
183 15 94 93 97
184 17 94 93 95
185 14 95 93 97
186 18 97 101 90
187 14 97 101 103
188 15 97 101 102
189 16 97 99 100
190 15 98 97 101
191 17 98 97 99
192 14 99 97 101
193 16 101 103 104
194 19 101 90 92
195 20 101 90 105
196 21 101 90 91
197 22 102 101 90
198 17 102 101 103
199 23 103 101 90
200 24 105 108 109
201 25 105 90 92
202 26 106 105 108
203 27 106 105 107
204 26 107 105 108
205 1 110 146 144
206 2 110 115 119
207 3 110 115 117
208 4 110 115 116
209 5 110 114 112
210 6 111 110 115
211 7 111 110 114
212 8 112 126 129
213 9 112 126 128
214 9 112 126 127
215 10 113 112 114
216 11 113 112 126
217 12 114 110 115
218 13 115 119 123
219 14 115 119 121
220 15 115 119 120
221 16 115 117 118
222 15 116 115 119
223 17 116 115 117
224 14 117 115 119
225 18 119 123 112
226 28 119 123 125
227 15 119 123 124
228 16 119 121 122
229 15 120 119 123
230 17 120 119 121
231 14 121 119 123
232 19 123 112 114
233 20 123 112 126
234 21 123 112 113
235 22 124 123 112
236 29 124 123 125
237 30 125 123 112
238 31 125 88 93
239 32 125 88 92
240 33 125 88 89
241 24 126 129 130
242 25 126 112 114
243 26 127 126 129
244 27 127 126 128
245 26 128 126 129
246 1 131 169 167
247 2 131 136 140
248 3 131 136 138
249 4 131 136 137
250 5 131 135 133
251 6 132 131 136
252 7 132 131 135
253 8 133 147 150
254 9 133 147 149
255 9 133 147 148
256 10 134 133 135
257 11 134 133 147
258 12 135 131 136
259 13 136 140 144
260 14 136 140 142
261 15 136 140 141
262 16 136 138 139
263 15 137 136 140
264 17 137 136 138
265 14 138 136 140
266 18 140 144 133
267 28 140 144 146
268 15 140 144 145
269 16 140 142 143
270 15 141 140 144
271 17 141 140 142
272 14 142 140 144
273 19 144 133 135
274 20 144 133 147
275 21 144 133 134
276 22 145 144 133
277 29 145 144 146
278 30 146 144 133
279 31 146 110 115
280 32 146 110 114
281 33 146 110 111
282 24 147 150 151
283 25 147 133 135
284 26 148 147 150
285 27 148 147 149
286 26 149 147 150
287 2 152 159 163
288 3 152 159 161
289 4 152 159 160
290 5 152 158 156
291 34 152 154 155
292 6 153 152 159
293 7 153 152 158
294 35 154 152 159
295 36 154 152 158
296 37 154 152 153
297 8 156 170 173
298 9 156 170 172
299 9 156 170 171
300 10 157 156 158
301 11 157 156 170
302 12 158 152 159
303 13 159 163 167
304 14 159 163 165
305 15 159 163 164
306 16 159 161 162
307 15 160 159 163
308 17 160 159 161
309 14 161 159 163
310 18 163 167 156
311 28 163 167 169
312 15 163 167 168
313 16 163 165 166
314 15 164 163 167
315 17 164 163 165
316 14 165 163 167
317 19 167 156 158
318 20 167 156 170
319 21 167 156 157
320 22 168 167 156
321 29 168 167 169
322 30 169 167 156
323 31 169 131 136
324 32 169 131 135
325 33 169 131 132
326 24 170 173 174
327 25 170 156 158
328 26 171 170 173
329 27 171 170 172
330 26 172 170 173
331 1 175 212 210
332 2 175 180 184
333 3 175 180 182
334 4 175 180 181
335 5 175 179 177
336 6 176 175 180
337 7 176 175 179
338 8 177 192 195
339 9 177 192 194
340 9 177 192 193
341 10 178 177 179
342 11 178 177 192
343 12 179 175 180
344 13 180 184 188
345 14 180 184 186
346 15 180 184 185
347 16 180 182 183
348 15 181 180 184
349 17 181 180 182
350 14 182 180 184
351 18 184 188 177
352 14 184 188 190
353 15 184 188 189
354 16 184 186 187
355 15 185 184 188
356 17 185 184 186
357 14 186 184 188
358 16 188 190 191
359 19 188 177 179
360 20 188 177 192
361 21 188 177 178
362 22 189 188 177
363 17 189 188 190
364 23 190 188 177
365 24 192 195 196
366 25 192 177 179
367 26 193 192 195
368 27 193 192 194
369 26 194 192 195
370 1 197 233 231
371 2 197 202 206
372 3 197 202 204
373 4 197 202 203
374 5 197 201 199
375 6 198 197 202
376 7 198 197 201
377 8 199 213 216
378 9 199 213 215
379 9 199 213 214
380 10 200 199 201
381 11 200 199 213
382 12 201 197 202
383 13 202 206 210
384 14 202 206 208
385 15 202 206 207
386 16 202 204 205
387 15 203 202 206
388 17 203 202 204
389 14 204 202 206
390 18 206 210 199
391 28 206 210 212
392 15 206 210 211
393 16 206 208 209
394 15 207 206 210
395 17 207 206 208
396 14 208 206 210
397 19 210 199 201
398 20 210 199 213
399 21 210 199 200
400 22 211 210 199
401 29 211 210 212
402 30 212 210 199
403 31 212 175 180
404 32 212 175 179
405 33 212 175 176
406 24 213 216 217
407 25 213 199 201
408 26 214 213 216
409 27 214 213 215
410 26 215 213 216
411 1 218 256 254
412 2 218 223 227
413 3 218 223 225
414 4 218 223 224
415 5 218 222 220
416 6 219 218 223
417 7 219 218 222
418 8 220 234 237
419 9 220 234 236
420 9 220 234 235
421 10 221 220 222
422 11 221 220 234
423 12 222 218 223
424 13 223 227 231
425 14 223 227 229
426 15 223 227 228
427 16 223 225 226
428 15 224 223 227
429 17 224 223 225
430 14 225 223 227
431 18 227 231 220
432 28 227 231 233
433 15 227 231 232
434 16 227 229 230
435 15 228 227 231
436 17 228 227 229
437 14 229 227 231
438 19 231 220 222
439 20 231 220 234
440 21 231 220 221
441 22 232 231 220
442 29 232 231 233
443 30 233 231 220
444 31 233 197 202
445 32 233 197 201
446 33 233 197 198
447 24 234 237 238
448 25 234 220 222
449 26 235 234 237
450 27 235 234 236
451 26 236 234 237
452 2 239 246 250
453 3 239 246 248
454 4 239 246 247
455 5 239 245 243
456 34 239 241 242
457 6 240 239 246
458 7 240 239 245
459 35 241 239 246
460 36 241 239 245
461 37 241 239 240
462 8 243 257 260
463 9 243 257 259
464 9 243 257 258
465 10 244 243 245
466 11 244 243 257
467 12 245 239 246
468 13 246 250 254
469 14 246 250 252
470 15 246 250 251
471 16 246 248 249
472 15 247 246 250
473 17 247 246 248
474 14 248 246 250
475 18 250 254 243
476 28 250 254 256
477 15 250 254 255
478 16 250 252 253
479 15 251 250 254
480 17 251 250 252
481 14 252 250 254
482 19 254 243 245
483 20 254 243 257
484 21 254 243 244
485 22 255 254 243
486 29 255 254 256
487 30 256 254 243
488 31 256 218 223
489 32 256 218 222
490 33 256 218 219
491 24 257 260 261
492 25 257 243 245
493 26 258 257 260
494 27 258 257 259
495 26 259 257 260
496 1 262 299 297
497 2 262 267 271
498 3 262 267 269
499 4 262 267 268
500 5 262 266 264
501 6 263 262 267
502 7 263 262 266
503 8 264 279 282
504 9 264 279 281
505 9 264 279 280
506 10 265 264 266
507 11 265 264 279
508 12 266 262 267
509 13 267 271 275
510 14 267 271 273
511 15 267 271 272
512 16 267 269 270
513 15 268 267 271
514 17 268 267 269
515 14 269 267 271
516 18 271 275 264
517 14 271 275 277
518 15 271 275 276
519 16 271 273 274
520 15 272 271 275
521 17 272 271 273
522 14 273 271 275
523 16 275 277 278
524 19 275 264 266
525 20 275 264 279
526 21 275 264 265
527 22 276 275 264
528 17 276 275 277
529 23 277 275 264
530 24 279 282 283
531 25 279 264 266
532 26 280 279 282
533 27 280 279 281
534 26 281 279 282
535 1 284 320 318
536 2 284 289 293
537 3 284 289 291
538 4 284 289 290
539 5 284 288 286
540 6 285 284 289
541 7 285 284 288
542 8 286 300 303
543 9 286 300 302
544 9 286 300 301
545 10 287 286 288
546 11 287 286 300
547 12 288 284 289
548 13 289 293 297
549 14 289 293 295
550 15 289 293 294
551 16 289 291 292
552 15 290 289 293
553 17 290 289 291
554 14 291 289 293
555 18 293 297 286